n -t * -s 0  -x 199 -y 443 -Z 0 -z 20  -v circle -c green
n -t * -s 1  -x 361 -y 432 -Z 0 -z 20  -v circle -c green
n -t * -s 2  -x 363 -y 287 -Z 0 -z 20  -v circle -c green
n -t * -s 3  -x 210 -y 271 -Z 0 -z 20  -v circle -c green
n -t * -s 4  -x 246 -y 139 -Z 0 -z 20  -v circle -c green
n -t * -s 5  -x 402 -y 141 -Z 0 -z 20  -v circle -c green
n -t * -s 6  -x 499 -y 261 -Z 0 -z 20  -v circle -c green
n -t * -s 7  -x 564 -y 418 -Z 0 -z 20  -v circle -c green
n -t * -s 8  -x 609 -y 292 -Z 0 -z 20  -v circle -c green
n -t * -s 9  -x 542 -y 115 -Z 0 -z 20  -v circle -c green
n -t * -s 10  -x 370 -y 41 -Z 0 -z 20  -v circle -c green
n -t * -s 11  -x 688 -y 156 -Z 0 -z 20  -v circle -c green
n -t * -s 12  -x 758 -y 316 -Z 0 -z 20  -v circle -c green
n -t * -s 13  -x 728 -y 428 -Z 0 -z 20  -v circle -c green
n -t * -s 14  -x 695 -y 54 -Z 0 -z 20  -v circle -c green
n -t * -s 15  -x 556 -y 21 -Z 0 -z 20  -v circle -c green
n -t * -s 16  -x 856 -y 188 -Z 0 -z 20  -v circle -c green
V -t * -v 1.0a5 -a 0
W -t * -x 956 -y 600
A -t * -n 1 -p 0 -o 0x7fffffff -c 30 -a 1
A -t * -h 1 -m 1073741823 -s 0
n -t 1.000000 -s 2 -x 363.000000 -y 287.000000 -U 9.955281 -V 0.944662 -T 13.761541
+ -t 1.000000000 -s 3 -d -1 -p tcp -e 40 -c 2 -a 0 -i 0 -k AGT 
- -t 1.000000000 -s 3 -d -1 -p tcp -e 40 -c 2 -a 0 -i 0 -k AGT
h -t 1.000000000 -s 3 -d -1 -p tcp -e 40 -c 2 -a 0 -i 0 -k AGT
+ -t 1.001616328 -s 3 -d -1 -p DSR -e 32 -c 2 -a 0 -i 1 -k RTR 
- -t 1.001616328 -s 3 -d -1 -p DSR -e 32 -c 2 -a 0 -i 1 -k RTR
h -t 1.001616328 -s 3 -d -1 -p DSR -e 32 -c 2 -a 0 -i 1 -k RTR
+ -t 1.002091328 -s 3 -d -1 -p DSR -e 90 -c 2 -a 0 -i 1 -k MAC 
- -t 1.002091328 -s 3 -d -1 -p DSR -e 90 -c 2 -a 0 -i 1 -k MAC
h -t 1.002091328 -s 3 -d -1 -p DSR -e 90 -c 2 -a 0 -i 1 -k MAC
r -t 1.002811784 -s 4 -d -1 -p DSR -e 32 -c 2 -a 0 -i 1 -k MAC
r -t 1.002811841 -s 2 -d -1 -p DSR -e 32 -c 2 -a 0 -i 1 -k MAC
r -t 1.002811903 -s 0 -d -1 -p DSR -e 32 -c 2 -a 0 -i 1 -k MAC
r -t 1.002812064 -s 1 -d -1 -p DSR -e 32 -c 2 -a 0 -i 1 -k MAC
r -t 1.002812101 -s 5 -d -1 -p DSR -e 32 -c 2 -a 0 -i 1 -k MAC
+ -t 1.078373368 -s 3 -d -1 -p DSR -e 32 -c 2 -a 0 -i 3 -k RTR 
- -t 1.078373368 -s 3 -d -1 -p DSR -e 32 -c 2 -a 0 -i 3 -k RTR
h -t 1.078373368 -s 3 -d -1 -p DSR -e 32 -c 2 -a 0 -i 3 -k RTR
+ -t 1.078448368 -s 3 -d -1 -p DSR -e 90 -c 2 -a 0 -i 3 -k MAC 
- -t 1.078448368 -s 3 -d -1 -p DSR -e 90 -c 2 -a 0 -i 3 -k MAC
h -t 1.078448368 -s 3 -d -1 -p DSR -e 90 -c 2 -a 0 -i 3 -k MAC
r -t 1.079168824 -s 4 -d -1 -p DSR -e 32 -c 2 -a 0 -i 3 -k MAC
r -t 1.079168884 -s 2 -d -1 -p DSR -e 32 -c 2 -a 0 -i 3 -k MAC
r -t 1.079168943 -s 0 -d -1 -p DSR -e 32 -c 2 -a 0 -i 3 -k MAC
r -t 1.079169104 -s 1 -d -1 -p DSR -e 32 -c 2 -a 0 -i 3 -k MAC
r -t 1.079169141 -s 5 -d -1 -p DSR -e 32 -c 2 -a 0 -i 3 -k MAC
+ -t 1.079727904 -s 2 -d -1 -p DSR -e 48 -c 2 -a 0 -i 3 -k RTR 
- -t 1.079727904 -s 2 -d -1 -p DSR -e 48 -c 2 -a 0 -i 3 -k RTR
h -t 1.079727904 -s 2 -d -1 -p DSR -e 48 -c 2 -a 0 -i 3 -k RTR
+ -t 1.080162904 -s 2 -d -1 -p DSR -e 106 -c 2 -a 0 -i 3 -k MAC 
- -t 1.080162904 -s 2 -d -1 -p DSR -e 106 -c 2 -a 0 -i 3 -k MAC
h -t 1.080162904 -s 2 -d -1 -p DSR -e 106 -c 2 -a 0 -i 3 -k MAC
+ -t 1.080874219 -s 0 -d -1 -p DSR -e 48 -c 2 -a 0 -i 3 -k RTR 
- -t 1.080874219 -s 0 -d -1 -p DSR -e 48 -c 2 -a 0 -i 3 -k RTR
h -t 1.080874219 -s 0 -d -1 -p DSR -e 48 -c 2 -a 0 -i 3 -k RTR
r -t 1.081011363 -s 6 -d -1 -p DSR -e 48 -c 2 -a 0 -i 3 -k MAC
r -t 1.081011387 -s 1 -d -1 -p DSR -e 48 -c 2 -a 0 -i 3 -k MAC
r -t 1.081011407 -s 5 -d -1 -p DSR -e 48 -c 2 -a 0 -i 3 -k MAC
r -t 1.081011419 -s 3 -d -1 -p DSR -e 48 -c 2 -a 0 -i 3 -k MAC
r -t 1.081011535 -s 4 -d -1 -p DSR -e 48 -c 2 -a 0 -i 3 -k MAC
r -t 1.081011660 -s 0 -d -1 -p DSR -e 48 -c 2 -a 0 -i 3 -k MAC
r -t 1.081011701 -s 7 -d -1 -p DSR -e 48 -c 2 -a 0 -i 3 -k MAC
r -t 1.081011721 -s 8 -d -1 -p DSR -e 48 -c 2 -a 0 -i 3 -k MAC
r -t 1.081011724 -s 10 -d -1 -p DSR -e 48 -c 2 -a 0 -i 3 -k MAC
r -t 1.081011730 -s 9 -d -1 -p DSR -e 48 -c 2 -a 0 -i 3 -k MAC
+ -t 1.081561660 -s 0 -d -1 -p DSR -e 106 -c 2 -a 0 -i 3 -k MAC 
- -t 1.081561660 -s 0 -d -1 -p DSR -e 106 -c 2 -a 0 -i 3 -k MAC
h -t 1.081561660 -s 0 -d -1 -p DSR -e 106 -c 2 -a 0 -i 3 -k MAC
+ -t 1.081636853 -s 8 -d -1 -p DSR -e 68 -c 2 -a 0 -i 3 -k RTR 
- -t 1.081636853 -s 8 -d -1 -p DSR -e 68 -c 2 -a 0 -i 3 -k RTR
h -t 1.081636853 -s 8 -d -1 -p DSR -e 68 -c 2 -a 0 -i 3 -k RTR
+ -t 1.081904807 -s 4 -d -1 -p DSR -e 48 -c 2 -a 0 -i 3 -k RTR 
- -t 1.081904807 -s 4 -d -1 -p DSR -e 48 -c 2 -a 0 -i 3 -k RTR
h -t 1.081904807 -s 4 -d -1 -p DSR -e 48 -c 2 -a 0 -i 3 -k RTR
r -t 1.082410201 -s 1 -d -1 -p DSR -e 48 -c 2 -a 0 -i 3 -k MAC
r -t 1.082410235 -s 3 -d -1 -p DSR -e 48 -c 2 -a 0 -i 3 -k MAC
r -t 1.082410416 -s 2 -d -1 -p DSR -e 48 -c 2 -a 0 -i 3 -k MAC
+ -t 1.082884685 -s 4 -d -1 -p DSR -e 106 -c 2 -a 0 -i 3 -k MAC 
- -t 1.082884685 -s 4 -d -1 -p DSR -e 106 -c 2 -a 0 -i 3 -k MAC
h -t 1.082884685 -s 4 -d -1 -p DSR -e 106 -c 2 -a 0 -i 3 -k MAC
+ -t 1.083519294 -s 5 -d -1 -p DSR -e 48 -c 2 -a 0 -i 3 -k RTR 
- -t 1.083519294 -s 5 -d -1 -p DSR -e 48 -c 2 -a 0 -i 3 -k RTR
h -t 1.083519294 -s 5 -d -1 -p DSR -e 48 -c 2 -a 0 -i 3 -k RTR
r -t 1.083733142 -s 3 -d -1 -p DSR -e 48 -c 2 -a 0 -i 3 -k MAC
r -t 1.083733206 -s 5 -d -1 -p DSR -e 48 -c 2 -a 0 -i 3 -k MAC
r -t 1.083733212 -s 10 -d -1 -p DSR -e 48 -c 2 -a 0 -i 3 -k MAC
r -t 1.083733316 -s 2 -d -1 -p DSR -e 48 -c 2 -a 0 -i 3 -k MAC
+ -t 1.084243206 -s 5 -d -1 -p DSR -e 106 -c 2 -a 0 -i 3 -k MAC 
- -t 1.084243206 -s 5 -d -1 -p DSR -e 106 -c 2 -a 0 -i 3 -k MAC
h -t 1.084243206 -s 5 -d -1 -p DSR -e 106 -c 2 -a 0 -i 3 -k MAC
+ -t 1.084417290 -s 1 -d -1 -p DSR -e 48 -c 2 -a 0 -i 3 -k RTR 
- -t 1.084417290 -s 1 -d -1 -p DSR -e 48 -c 2 -a 0 -i 3 -k RTR
h -t 1.084417290 -s 1 -d -1 -p DSR -e 48 -c 2 -a 0 -i 3 -k RTR
r -t 1.085091556 -s 10 -d -1 -p DSR -e 48 -c 2 -a 0 -i 3 -k MAC
r -t 1.085091680 -s 9 -d -1 -p DSR -e 48 -c 2 -a 0 -i 3 -k MAC
r -t 1.085091709 -s 2 -d -1 -p DSR -e 48 -c 2 -a 0 -i 3 -k MAC
r -t 1.085091720 -s 6 -d -1 -p DSR -e 48 -c 2 -a 0 -i 3 -k MAC
r -t 1.085091726 -s 4 -d -1 -p DSR -e 48 -c 2 -a 0 -i 3 -k MAC
r -t 1.085091856 -s 15 -d -1 -p DSR -e 48 -c 2 -a 0 -i 3 -k MAC
r -t 1.085091978 -s 3 -d -1 -p DSR -e 48 -c 2 -a 0 -i 3 -k MAC
+ -t 1.085438210 -s 6 -d -1 -p DSR -e 68 -c 2 -a 0 -i 3 -k RTR 
- -t 1.085438210 -s 6 -d -1 -p DSR -e 68 -c 2 -a 0 -i 3 -k RTR
h -t 1.085438210 -s 6 -d -1 -p DSR -e 68 -c 2 -a 0 -i 3 -k RTR
+ -t 1.085546185 -s 1 -d -1 -p DSR -e 106 -c 2 -a 0 -i 3 -k MAC 
- -t 1.085546185 -s 1 -d -1 -p DSR -e 106 -c 2 -a 0 -i 3 -k MAC
h -t 1.085546185 -s 1 -d -1 -p DSR -e 106 -c 2 -a 0 -i 3 -k MAC
+ -t 1.086081066 -s 10 -d -1 -p DSR -e 68 -c 2 -a 0 -i 3 -k RTR 
- -t 1.086081066 -s 10 -d -1 -p DSR -e 68 -c 2 -a 0 -i 3 -k RTR
h -t 1.086081066 -s 10 -d -1 -p DSR -e 68 -c 2 -a 0 -i 3 -k RTR
r -t 1.086394668 -s 2 -d -1 -p DSR -e 48 -c 2 -a 0 -i 3 -k MAC
r -t 1.086394726 -s 0 -d -1 -p DSR -e 48 -c 2 -a 0 -i 3 -k MAC
r -t 1.086394863 -s 7 -d -1 -p DSR -e 48 -c 2 -a 0 -i 3 -k MAC
r -t 1.086394918 -s 6 -d -1 -p DSR -e 48 -c 2 -a 0 -i 3 -k MAC
r -t 1.086394921 -s 3 -d -1 -p DSR -e 48 -c 2 -a 0 -i 3 -k MAC
+ -t 1.086524918 -s 6 -d -1 -p DSR -e 126 -c 2 -a 0 -i 3 -k MAC 
- -t 1.086524918 -s 6 -d -1 -p DSR -e 126 -c 2 -a 0 -i 3 -k MAC
h -t 1.086524918 -s 6 -d -1 -p DSR -e 126 -c 2 -a 0 -i 3 -k MAC
r -t 1.087533299 -s 8 -d -1 -p DSR -e 68 -c 2 -a 0 -i 3 -k MAC
r -t 1.087533376 -s 2 -d -1 -p DSR -e 68 -c 2 -a 0 -i 3 -k MAC
r -t 1.087533425 -s 9 -d -1 -p DSR -e 68 -c 2 -a 0 -i 3 -k MAC
r -t 1.087533432 -s 5 -d -1 -p DSR -e 68 -c 2 -a 0 -i 3 -k MAC
r -t 1.087533484 -s 7 -d -1 -p DSR -e 68 -c 2 -a 0 -i 3 -k MAC
r -t 1.087533638 -s 11 -d -1 -p DSR -e 68 -c 2 -a 0 -i 3 -k MAC
r -t 1.087533650 -s 1 -d -1 -p DSR -e 68 -c 2 -a 0 -i 3 -k MAC
r -t 1.087533740 -s 15 -d -1 -p DSR -e 68 -c 2 -a 0 -i 3 -k MAC
+ -t 1.087963299 -s 8 -d -1 -p DSR -e 126 -c 2 -a 0 -i 3 -k MAC 
- -t 1.087963299 -s 8 -d -1 -p DSR -e 126 -c 2 -a 0 -i 3 -k MAC
h -t 1.087963299 -s 8 -d -1 -p DSR -e 126 -c 2 -a 0 -i 3 -k MAC
r -t 1.088971679 -s 6 -d -1 -p DSR -e 68 -c 2 -a 0 -i 3 -k MAC
r -t 1.088971745 -s 7 -d -1 -p DSR -e 68 -c 2 -a 0 -i 3 -k MAC
r -t 1.088971802 -s 12 -d -1 -p DSR -e 68 -c 2 -a 0 -i 3 -k MAC
r -t 1.088971823 -s 11 -d -1 -p DSR -e 68 -c 2 -a 0 -i 3 -k MAC
r -t 1.088971901 -s 13 -d -1 -p DSR -e 68 -c 2 -a 0 -i 3 -k MAC
r -t 1.088971929 -s 9 -d -1 -p DSR -e 68 -c 2 -a 0 -i 3 -k MAC
r -t 1.088972116 -s 2 -d -1 -p DSR -e 68 -c 2 -a 0 -i 3 -k MAC
+ -t 1.089746454 -s 10 -d -1 -p DSR -e 126 -c 2 -a 0 -i 3 -k MAC 
- -t 1.089746454 -s 10 -d -1 -p DSR -e 126 -c 2 -a 0 -i 3 -k MAC
h -t 1.089746454 -s 10 -d -1 -p DSR -e 126 -c 2 -a 0 -i 3 -k MAC
+ -t 1.090022621 -s 7 -d -1 -p DSR -e 68 -c 2 -a 0 -i 3 -k RTR 
- -t 1.090022621 -s 7 -d -1 -p DSR -e 68 -c 2 -a 0 -i 3 -k RTR
h -t 1.090022621 -s 7 -d -1 -p DSR -e 68 -c 2 -a 0 -i 3 -k RTR
+ -t 1.090747914 -s 9 -d -1 -p DSR -e 68 -c 2 -a 0 -i 3 -k RTR 
- -t 1.090747914 -s 9 -d -1 -p DSR -e 68 -c 2 -a 0 -i 3 -k RTR
h -t 1.090747914 -s 9 -d -1 -p DSR -e 68 -c 2 -a 0 -i 3 -k RTR
r -t 1.090754804 -s 5 -d -1 -p DSR -e 68 -c 2 -a 0 -i 3 -k MAC
r -t 1.090754981 -s 4 -d -1 -p DSR -e 68 -c 2 -a 0 -i 3 -k MAC
r -t 1.090755077 -s 15 -d -1 -p DSR -e 68 -c 2 -a 0 -i 3 -k MAC
r -t 1.090755078 -s 9 -d -1 -p DSR -e 68 -c 2 -a 0 -i 3 -k MAC
r -t 1.090755274 -s 2 -d -1 -p DSR -e 68 -c 2 -a 0 -i 3 -k MAC
+ -t 1.091342914 -s 9 -d -1 -p DSR -e 126 -c 2 -a 0 -i 3 -k MAC 
- -t 1.091342914 -s 9 -d -1 -p DSR -e 126 -c 2 -a 0 -i 3 -k MAC
h -t 1.091342914 -s 9 -d -1 -p DSR -e 126 -c 2 -a 0 -i 3 -k MAC
r -t 1.092351230 -s 15 -d -1 -p DSR -e 68 -c 2 -a 0 -i 3 -k MAC
r -t 1.092351388 -s 5 -d -1 -p DSR -e 68 -c 2 -a 0 -i 3 -k MAC
r -t 1.092351419 -s 11 -d -1 -p DSR -e 68 -c 2 -a 0 -i 3 -k MAC
r -t 1.092351421 -s 6 -d -1 -p DSR -e 68 -c 2 -a 0 -i 3 -k MAC
r -t 1.092351463 -s 14 -d -1 -p DSR -e 68 -c 2 -a 0 -i 3 -k MAC
r -t 1.092351538 -s 10 -d -1 -p DSR -e 68 -c 2 -a 0 -i 3 -k MAC
r -t 1.092351544 -s 8 -d -1 -p DSR -e 68 -c 2 -a 0 -i 3 -k MAC
r -t 1.092351739 -s 2 -d -1 -p DSR -e 68 -c 2 -a 0 -i 3 -k MAC
+ -t 1.093010788 -s 15 -d -1 -p DSR -e 68 -c 2 -a 0 -i 3 -k RTR 
- -t 1.093010788 -s 15 -d -1 -p DSR -e 68 -c 2 -a 0 -i 3 -k RTR
h -t 1.093010788 -s 15 -d -1 -p DSR -e 68 -c 2 -a 0 -i 3 -k RTR
+ -t 1.093085926 -s 7 -d -1 -p DSR -e 126 -c 2 -a 0 -i 3 -k MAC 
- -t 1.093085926 -s 7 -d -1 -p DSR -e 126 -c 2 -a 0 -i 3 -k MAC
h -t 1.093085926 -s 7 -d -1 -p DSR -e 126 -c 2 -a 0 -i 3 -k MAC
r -t 1.094094372 -s 8 -d -1 -p DSR -e 68 -c 2 -a 0 -i 3 -k MAC
r -t 1.094094474 -s 13 -d -1 -p DSR -e 68 -c 2 -a 0 -i 3 -k MAC
r -t 1.094094493 -s 6 -d -1 -p DSR -e 68 -c 2 -a 0 -i 3 -k MAC
r -t 1.094094604 -s 1 -d -1 -p DSR -e 68 -c 2 -a 0 -i 3 -k MAC
r -t 1.094094657 -s 12 -d -1 -p DSR -e 68 -c 2 -a 0 -i 3 -k MAC
r -t 1.094094723 -s 2 -d -1 -p DSR -e 68 -c 2 -a 0 -i 3 -k MAC
+ -t 1.094819549 -s 13 -d -1 -p DSR -e 92 -c 2 -a 0 -i 3 -k RTR 
- -t 1.094819549 -s 13 -d -1 -p DSR -e 92 -c 2 -a 0 -i 3 -k RTR
h -t 1.094819549 -s 13 -d -1 -p DSR -e 92 -c 2 -a 0 -i 3 -k RTR
+ -t 1.095069250 -s 15 -d -1 -p DSR -e 126 -c 2 -a 0 -i 3 -k MAC 
- -t 1.095069250 -s 15 -d -1 -p DSR -e 126 -c 2 -a 0 -i 3 -k MAC
h -t 1.095069250 -s 15 -d -1 -p DSR -e 126 -c 2 -a 0 -i 3 -k MAC
r -t 1.096077567 -s 9 -d -1 -p DSR -e 68 -c 2 -a 0 -i 3 -k MAC
r -t 1.096077726 -s 14 -d -1 -p DSR -e 68 -c 2 -a 0 -i 3 -k MAC
r -t 1.096077873 -s 10 -d -1 -p DSR -e 68 -c 2 -a 0 -i 3 -k MAC
r -t 1.096077879 -s 11 -d -1 -p DSR -e 68 -c 2 -a 0 -i 3 -k MAC
r -t 1.096077901 -s 5 -d -1 -p DSR -e 68 -c 2 -a 0 -i 3 -k MAC
r -t 1.096078072 -s 6 -d -1 -p DSR -e 68 -c 2 -a 0 -i 3 -k MAC
+ -t 1.096512083 -s 14 -d -1 -p DSR -e 92 -c 2 -a 0 -i 3 -k RTR 
- -t 1.096512083 -s 14 -d -1 -p DSR -e 92 -c 2 -a 0 -i 3 -k RTR
h -t 1.096512083 -s 14 -d -1 -p DSR -e 92 -c 2 -a 0 -i 3 -k RTR
+ -t 1.096572723 -s 13 -d -1 -p DSR -e 150 -c 2 -a 0 -i 3 -k MAC 
- -t 1.096572723 -s 13 -d -1 -p DSR -e 150 -c 2 -a 0 -i 3 -k MAC
h -t 1.096572723 -s 13 -d -1 -p DSR -e 150 -c 2 -a 0 -i 3 -k MAC
+ -t 1.096606511 -s 11 -d -1 -p DSR -e 92 -c 2 -a 0 -i 3 -k RTR 
- -t 1.096606511 -s 11 -d -1 -p DSR -e 92 -c 2 -a 0 -i 3 -k RTR
h -t 1.096606511 -s 11 -d -1 -p DSR -e 92 -c 2 -a 0 -i 3 -k RTR
+ -t 1.097740616 -s 12 -d 8 -p DSR -e 60 -c 2 -a 0 -i 4 -k RTR 
- -t 1.097740616 -s 12 -d 8 -p DSR -e 60 -c 2 -a 0 -i 4 -k RTR
h -t 1.097740616 -s 12 -d 8 -p DSR -e 60 -c 2 -a 0 -i 4 -k RTR
r -t 1.097773109 -s 12 -d -1 -p DSR -e 92 -c 2 -a 0 -i 3 -k MAC
r -t 1.097773270 -s 7 -d -1 -p DSR -e 92 -c 2 -a 0 -i 3 -k MAC
r -t 1.097773325 -s 8 -d -1 -p DSR -e 92 -c 2 -a 0 -i 3 -k MAC
+ -t 1.098023109 -s 12 -d -1 -p ARP -e 86 -c 2 -a 0 -i 0 -k MAC 
- -t 1.098023109 -s 12 -d -1 -p ARP -e 86 -c 2 -a 0 -i 0 -k MAC
h -t 1.098023109 -s 12 -d -1 -p ARP -e 86 -c 2 -a 0 -i 0 -k MAC
r -t 1.098711496 -s 13 -d -1 -p ARP -e 28 -c 2 -a 0 -i 0 -k MAC
r -t 1.098711612 -s 8 -d -1 -p ARP -e 28 -c 2 -a 0 -i 0 -k MAC
r -t 1.098711646 -s 16 -d -1 -p ARP -e 28 -c 2 -a 0 -i 0 -k MAC
r -t 1.098711691 -s 11 -d -1 -p ARP -e 28 -c 2 -a 0 -i 0 -k MAC
r -t 1.098711840 -s 7 -d -1 -p ARP -e 28 -c 2 -a 0 -i 0 -k MAC
+ -t 1.098954732 -s 12 -d 7 -p DSR -e 60 -c 2 -a 0 -i 5 -k RTR 
- -t 1.098954732 -s 12 -d 7 -p DSR -e 60 -c 2 -a 0 -i 5 -k RTR
h -t 1.098954732 -s 12 -d 7 -p DSR -e 60 -c 2 -a 0 -i 5 -k RTR
+ -t 1.098961691 -s 11 -d -1 -p DSR -e 150 -c 2 -a 0 -i 3 -k MAC 
- -t 1.098961691 -s 11 -d -1 -p DSR -e 150 -c 2 -a 0 -i 3 -k MAC
h -t 1.098961691 -s 11 -d -1 -p DSR -e 150 -c 2 -a 0 -i 3 -k MAC
r -t 1.100162032 -s 14 -d -1 -p DSR -e 92 -c 2 -a 0 -i 3 -k MAC
r -t 1.100162197 -s 9 -d -1 -p DSR -e 92 -c 2 -a 0 -i 3 -k MAC
r -t 1.100162216 -s 8 -d -1 -p DSR -e 92 -c 2 -a 0 -i 3 -k MAC
r -t 1.100162261 -s 16 -d -1 -p DSR -e 92 -c 2 -a 0 -i 3 -k MAC
r -t 1.100162273 -s 12 -d -1 -p DSR -e 92 -c 2 -a 0 -i 3 -k MAC
r -t 1.100162321 -s 15 -d -1 -p DSR -e 92 -c 2 -a 0 -i 3 -k MAC
r -t 1.100162412 -s 6 -d -1 -p DSR -e 92 -c 2 -a 0 -i 3 -k MAC
+ -t 1.100225831 -s 16 -d -1 -p DSR -e 120 -c 2 -a 0 -i 3 -k RTR 
- -t 1.100225831 -s 16 -d -1 -p DSR -e 120 -c 2 -a 0 -i 3 -k RTR
h -t 1.100225831 -s 16 -d -1 -p DSR -e 120 -c 2 -a 0 -i 3 -k RTR
+ -t 1.100632216 -s 8 -d -1 -p RTS -e 44 -c 2 -a 0 -i 0 -k MAC 
- -t 1.100632216 -s 8 -d -1 -p RTS -e 44 -c 2 -a 0 -i 0 -k MAC
h -t 1.100632216 -s 8 -d -1 -p RTS -e 44 -c 2 -a 0 -i 0 -k MAC
r -t 1.100984719 -s 12 -d -1 -p RTS -e 44 -c 2 -a 0 -i 0 -k MAC
+ -t 1.100994719 -s 12 -d -1 -p CTS -e 38 -c 2 -a 0 -i 0 -k MAC 
- -t 1.100994719 -s 12 -d -1 -p CTS -e 38 -c 2 -a 0 -i 0 -k MAC
h -t 1.100994719 -s 12 -d -1 -p CTS -e 38 -c 2 -a 0 -i 0 -k MAC
r -t 1.101299222 -s 8 -d -1 -p CTS -e 38 -c 2 -a 0 -i 0 -k MAC
+ -t 1.101309222 -s 8 -d -1 -p ARP -e 86 -c 2 -a 0 -i 0 -k MAC 
- -t 1.101309222 -s 8 -d -1 -p ARP -e 86 -c 2 -a 0 -i 0 -k MAC
h -t 1.101309222 -s 8 -d -1 -p ARP -e 86 -c 2 -a 0 -i 0 -k MAC
r -t 1.101997725 -s 12 -d -1 -p ARP -e 28 -c 2 -a 0 -i 0 -k MAC
+ -t 1.102007725 -s 12 -d -1 -p ACK -e 38 -c 2 -a 0 -i 0 -k MAC 
- -t 1.102007725 -s 12 -d -1 -p ACK -e 38 -c 2 -a 0 -i 0 -k MAC
h -t 1.102007725 -s 12 -d -1 -p ACK -e 38 -c 2 -a 0 -i 0 -k MAC
r -t 1.102312228 -s 8 -d -1 -p ACK -e 38 -c 2 -a 0 -i 0 -k MAC
+ -t 1.102401725 -s 12 -d -1 -p ARP -e 86 -c 2 -a 0 -i 0 -k MAC 
- -t 1.102401725 -s 12 -d -1 -p ARP -e 86 -c 2 -a 0 -i 0 -k MAC
h -t 1.102401725 -s 12 -d -1 -p ARP -e 86 -c 2 -a 0 -i 0 -k MAC
r -t 1.103090111 -s 13 -d -1 -p ARP -e 28 -c 2 -a 0 -i 0 -k MAC
r -t 1.103090228 -s 8 -d -1 -p ARP -e 28 -c 2 -a 0 -i 0 -k MAC
r -t 1.103090262 -s 16 -d -1 -p ARP -e 28 -c 2 -a 0 -i 0 -k MAC
r -t 1.103090307 -s 11 -d -1 -p ARP -e 28 -c 2 -a 0 -i 0 -k MAC
r -t 1.103090455 -s 7 -d -1 -p ARP -e 28 -c 2 -a 0 -i 0 -k MAC
+ -t 1.103200262 -s 16 -d -1 -p DSR -e 178 -c 2 -a 0 -i 3 -k MAC 
- -t 1.103200262 -s 16 -d -1 -p DSR -e 178 -c 2 -a 0 -i 3 -k MAC
h -t 1.103200262 -s 16 -d -1 -p DSR -e 178 -c 2 -a 0 -i 3 -k MAC
+ -t 1.103671334 -s 12 -d 13 -p DSR -e 68 -c 2 -a 0 -i 6 -k RTR 
- -t 1.103671334 -s 12 -d 13 -p DSR -e 68 -c 2 -a 0 -i 6 -k RTR
h -t 1.103671334 -s 12 -d 13 -p DSR -e 68 -c 2 -a 0 -i 6 -k RTR
r -t 1.104624799 -s 12 -d -1 -p DSR -e 120 -c 2 -a 0 -i 3 -k MAC
r -t 1.104624832 -s 11 -d -1 -p DSR -e 120 -c 2 -a 0 -i 3 -k MAC
r -t 1.104624960 -s 14 -d -1 -p DSR -e 120 -c 2 -a 0 -i 3 -k MAC
+ -t 1.104754960 -s 14 -d -1 -p DSR -e 150 -c 2 -a 0 -i 3 -k MAC 
- -t 1.104754960 -s 14 -d -1 -p DSR -e 150 -c 2 -a 0 -i 3 -k MAC
h -t 1.104754960 -s 14 -d -1 -p DSR -e 150 -c 2 -a 0 -i 3 -k MAC
+ -t 1.105556830 -s 12 -d 11 -p DSR -e 68 -c 2 -a 0 -i 7 -k RTR 
- -t 1.105556830 -s 12 -d 11 -p DSR -e 68 -c 2 -a 0 -i 7 -k RTR
h -t 1.105556830 -s 12 -d 11 -p DSR -e 68 -c 2 -a 0 -i 7 -k RTR
r -t 1.105955301 -s 11 -d -1 -p DSR -e 92 -c 2 -a 0 -i 3 -k MAC
r -t 1.105955437 -s 15 -d -1 -p DSR -e 92 -c 2 -a 0 -i 3 -k MAC
r -t 1.105955509 -s 9 -d -1 -p DSR -e 92 -c 2 -a 0 -i 3 -k MAC
r -t 1.105955659 -s 16 -d -1 -p DSR -e 92 -c 2 -a 0 -i 3 -k MAC
+ -t 1.106709859 -s 12 -d -1 -p RTS -e 44 -c 2 -a 0 -i 0 -k MAC 
- -t 1.106709859 -s 12 -d -1 -p RTS -e 44 -c 2 -a 0 -i 0 -k MAC
h -t 1.106709859 -s 12 -d -1 -p RTS -e 44 -c 2 -a 0 -i 0 -k MAC
r -t 1.107062362 -s 8 -d -1 -p RTS -e 44 -c 2 -a 0 -i 0 -k MAC
+ -t 1.107072362 -s 8 -d -1 -p CTS -e 38 -c 2 -a 0 -i 0 -k MAC 
- -t 1.107072362 -s 8 -d -1 -p CTS -e 38 -c 2 -a 0 -i 0 -k MAC
h -t 1.107072362 -s 8 -d -1 -p CTS -e 38 -c 2 -a 0 -i 0 -k MAC
r -t 1.107376865 -s 12 -d -1 -p CTS -e 38 -c 2 -a 0 -i 0 -k MAC
+ -t 1.107386865 -s 12 -d 8 -p DSR -e 118 -c 2 -a 0 -i 4 -k MAC 
- -t 1.107386865 -s 12 -d 8 -p DSR -e 118 -c 2 -a 0 -i 4 -k MAC
h -t 1.107386865 -s 12 -d 8 -p DSR -e 118 -c 2 -a 0 -i 4 -k MAC
r -t 1.108331368 -s 8 -d 8 -p DSR -e 60 -c 2 -a 0 -i 4 -k MAC
+ -t 1.108341368 -s 8 -d -1 -p ACK -e 38 -c 2 -a 0 -i 0 -k MAC 
- -t 1.108341368 -s 8 -d -1 -p ACK -e 38 -c 2 -a 0 -i 0 -k MAC
h -t 1.108341368 -s 8 -d -1 -p ACK -e 38 -c 2 -a 0 -i 0 -k MAC
+ -t 1.108356368 -s 8 -d 2 -p DSR -e 60 -c 2 -a 0 -i 4 -k RTR 
- -t 1.108356368 -s 8 -d 2 -p DSR -e 60 -c 2 -a 0 -i 4 -k RTR
h -t 1.108356368 -s 8 -d 2 -p DSR -e 60 -c 2 -a 0 -i 4 -k RTR
r -t 1.108645871 -s 12 -d -1 -p ACK -e 38 -c 2 -a 0 -i 0 -k MAC
+ -t 1.108755814 -s 7 -d -1 -p RTS -e 44 -c 2 -a 0 -i 0 -k MAC 
- -t 1.108755814 -s 7 -d -1 -p RTS -e 44 -c 2 -a 0 -i 0 -k MAC
h -t 1.108755814 -s 7 -d -1 -p RTS -e 44 -c 2 -a 0 -i 0 -k MAC
r -t 1.109108544 -s 12 -d -1 -p RTS -e 44 -c 2 -a 0 -i 0 -k MAC
+ -t 1.109118544 -s 12 -d -1 -p CTS -e 38 -c 2 -a 0 -i 0 -k MAC 
- -t 1.109118544 -s 12 -d -1 -p CTS -e 38 -c 2 -a 0 -i 0 -k MAC
h -t 1.109118544 -s 12 -d -1 -p CTS -e 38 -c 2 -a 0 -i 0 -k MAC
r -t 1.109423275 -s 7 -d -1 -p CTS -e 38 -c 2 -a 0 -i 0 -k MAC
+ -t 1.109433275 -s 7 -d -1 -p ARP -e 86 -c 2 -a 0 -i 0 -k MAC 
- -t 1.109433275 -s 7 -d -1 -p ARP -e 86 -c 2 -a 0 -i 0 -k MAC
h -t 1.109433275 -s 7 -d -1 -p ARP -e 86 -c 2 -a 0 -i 0 -k MAC
+ -t 1.110057467 -s 12 -d 16 -p DSR -e 76 -c 2 -a 0 -i 8 -k RTR 
- -t 1.110057467 -s 12 -d 16 -p DSR -e 76 -c 2 -a 0 -i 8 -k RTR
h -t 1.110057467 -s 12 -d 16 -p DSR -e 76 -c 2 -a 0 -i 8 -k RTR
r -t 1.110122006 -s 12 -d -1 -p ARP -e 28 -c 2 -a 0 -i 0 -k MAC
+ -t 1.110132006 -s 12 -d -1 -p ACK -e 38 -c 2 -a 0 -i 0 -k MAC 
- -t 1.110132006 -s 12 -d -1 -p ACK -e 38 -c 2 -a 0 -i 0 -k MAC
h -t 1.110132006 -s 12 -d -1 -p ACK -e 38 -c 2 -a 0 -i 0 -k MAC
r -t 1.110436736 -s 7 -d -1 -p ACK -e 38 -c 2 -a 0 -i 0 -k MAC
+ -t 1.110606509 -s 8 -d -1 -p ARP -e 86 -c 2 -a 0 -i 0 -k MAC 
- -t 1.110606509 -s 8 -d -1 -p ARP -e 86 -c 2 -a 0 -i 0 -k MAC
h -t 1.110606509 -s 8 -d -1 -p ARP -e 86 -c 2 -a 0 -i 0 -k MAC
r -t 1.111294890 -s 6 -d -1 -p ARP -e 28 -c 2 -a 0 -i 0 -k MAC
r -t 1.111294955 -s 7 -d -1 -p ARP -e 28 -c 2 -a 0 -i 0 -k MAC
r -t 1.111295012 -s 12 -d -1 -p ARP -e 28 -c 2 -a 0 -i 0 -k MAC
r -t 1.111295033 -s 11 -d -1 -p ARP -e 28 -c 2 -a 0 -i 0 -k MAC
r -t 1.111295111 -s 13 -d -1 -p ARP -e 28 -c 2 -a 0 -i 0 -k MAC
r -t 1.111295139 -s 9 -d -1 -p ARP -e 28 -c 2 -a 0 -i 0 -k MAC
r -t 1.111295325 -s 2 -d -1 -p ARP -e 28 -c 2 -a 0 -i 0 -k MAC
+ -t 1.111350325 -s 2 -d -1 -p RTS -e 44 -c 2 -a 0 -i 0 -k MAC 
- -t 1.111350325 -s 2 -d -1 -p RTS -e 44 -c 2 -a 0 -i 0 -k MAC
h -t 1.111350325 -s 2 -d -1 -p RTS -e 44 -c 2 -a 0 -i 0 -k MAC
r -t 1.111703142 -s 8 -d -1 -p RTS -e 44 -c 2 -a 0 -i 0 -k MAC
+ -t 1.111713142 -s 8 -d -1 -p CTS -e 38 -c 2 -a 0 -i 0 -k MAC 
- -t 1.111713142 -s 8 -d -1 -p CTS -e 38 -c 2 -a 0 -i 0 -k MAC
h -t 1.111713142 -s 8 -d -1 -p CTS -e 38 -c 2 -a 0 -i 0 -k MAC
r -t 1.112017958 -s 2 -d -1 -p CTS -e 38 -c 2 -a 0 -i 0 -k MAC
+ -t 1.112027958 -s 2 -d -1 -p ARP -e 86 -c 2 -a 0 -i 0 -k MAC 
- -t 1.112027958 -s 2 -d -1 -p ARP -e 86 -c 2 -a 0 -i 0 -k MAC
h -t 1.112027958 -s 2 -d -1 -p ARP -e 86 -c 2 -a 0 -i 0 -k MAC
r -t 1.112716774 -s 8 -d -1 -p ARP -e 28 -c 2 -a 0 -i 0 -k MAC
+ -t 1.112726774 -s 8 -d -1 -p ACK -e 38 -c 2 -a 0 -i 0 -k MAC 
- -t 1.112726774 -s 8 -d -1 -p ACK -e 38 -c 2 -a 0 -i 0 -k MAC
h -t 1.112726774 -s 8 -d -1 -p ACK -e 38 -c 2 -a 0 -i 0 -k MAC
r -t 1.113031591 -s 2 -d -1 -p ACK -e 38 -c 2 -a 0 -i 0 -k MAC
+ -t 1.113511275 -s 12 -d -1 -p ARP -e 86 -c 2 -a 0 -i 0 -k MAC 
- -t 1.113511275 -s 12 -d -1 -p ARP -e 86 -c 2 -a 0 -i 0 -k MAC
h -t 1.113511275 -s 12 -d -1 -p ARP -e 86 -c 2 -a 0 -i 0 -k MAC
r -t 1.114199661 -s 13 -d -1 -p ARP -e 28 -c 2 -a 0 -i 0 -k MAC
r -t 1.114199778 -s 8 -d -1 -p ARP -e 28 -c 2 -a 0 -i 0 -k MAC
r -t 1.114199812 -s 16 -d -1 -p ARP -e 28 -c 2 -a 0 -i 0 -k MAC
r -t 1.114199857 -s 11 -d -1 -p ARP -e 28 -c 2 -a 0 -i 0 -k MAC
r -t 1.114200005 -s 7 -d -1 -p ARP -e 28 -c 2 -a 0 -i 0 -k MAC
+ -t 1.114369778 -s 8 -d -1 -p RTS -e 44 -c 2 -a 0 -i 0 -k MAC 
- -t 1.114369778 -s 8 -d -1 -p RTS -e 44 -c 2 -a 0 -i 0 -k MAC
h -t 1.114369778 -s 8 -d -1 -p RTS -e 44 -c 2 -a 0 -i 0 -k MAC
r -t 1.114722594 -s 2 -d -1 -p RTS -e 44 -c 2 -a 0 -i 0 -k MAC
+ -t 1.114732594 -s 2 -d -1 -p CTS -e 38 -c 2 -a 0 -i 0 -k MAC 
- -t 1.114732594 -s 2 -d -1 -p CTS -e 38 -c 2 -a 0 -i 0 -k MAC
h -t 1.114732594 -s 2 -d -1 -p CTS -e 38 -c 2 -a 0 -i 0 -k MAC
r -t 1.115037410 -s 8 -d -1 -p CTS -e 38 -c 2 -a 0 -i 0 -k MAC
+ -t 1.115047410 -s 8 -d 2 -p DSR -e 118 -c 2 -a 0 -i 4 -k MAC 
- -t 1.115047410 -s 8 -d 2 -p DSR -e 118 -c 2 -a 0 -i 4 -k MAC
h -t 1.115047410 -s 8 -d 2 -p DSR -e 118 -c 2 -a 0 -i 4 -k MAC
r -t 1.115992227 -s 2 -d 2 -p DSR -e 60 -c 2 -a 0 -i 4 -k MAC
+ -t 1.116002227 -s 2 -d -1 -p ACK -e 38 -c 2 -a 0 -i 0 -k MAC 
- -t 1.116002227 -s 2 -d -1 -p ACK -e 38 -c 2 -a 0 -i 0 -k MAC
h -t 1.116002227 -s 2 -d -1 -p ACK -e 38 -c 2 -a 0 -i 0 -k MAC
+ -t 1.116017227 -s 2 -d 3 -p DSR -e 60 -c 2 -a 0 -i 4 -k RTR 
- -t 1.116017227 -s 2 -d 3 -p DSR -e 60 -c 2 -a 0 -i 4 -k RTR
h -t 1.116017227 -s 2 -d 3 -p DSR -e 60 -c 2 -a 0 -i 4 -k RTR
r -t 1.116307043 -s 8 -d -1 -p ACK -e 38 -c 2 -a 0 -i 0 -k MAC
+ -t 1.116921527 -s 13 -d -1 -p RTS -e 44 -c 2 -a 0 -i 0 -k MAC 
- -t 1.116921527 -s 13 -d -1 -p RTS -e 44 -c 2 -a 0 -i 0 -k MAC
h -t 1.116921527 -s 13 -d -1 -p RTS -e 44 -c 2 -a 0 -i 0 -k MAC
r -t 1.117273914 -s 12 -d -1 -p RTS -e 44 -c 2 -a 0 -i 0 -k MAC
+ -t 1.117283914 -s 12 -d -1 -p CTS -e 38 -c 2 -a 0 -i 0 -k MAC 
- -t 1.117283914 -s 12 -d -1 -p CTS -e 38 -c 2 -a 0 -i 0 -k MAC
h -t 1.117283914 -s 12 -d -1 -p CTS -e 38 -c 2 -a 0 -i 0 -k MAC
r -t 1.117588300 -s 13 -d -1 -p CTS -e 38 -c 2 -a 0 -i 0 -k MAC
+ -t 1.117598300 -s 13 -d -1 -p ARP -e 86 -c 2 -a 0 -i 0 -k MAC 
- -t 1.117598300 -s 13 -d -1 -p ARP -e 86 -c 2 -a 0 -i 0 -k MAC
h -t 1.117598300 -s 13 -d -1 -p ARP -e 86 -c 2 -a 0 -i 0 -k MAC
r -t 1.118286687 -s 12 -d -1 -p ARP -e 28 -c 2 -a 0 -i 0 -k MAC
+ -t 1.118296687 -s 12 -d -1 -p ACK -e 38 -c 2 -a 0 -i 0 -k MAC 
- -t 1.118296687 -s 12 -d -1 -p ACK -e 38 -c 2 -a 0 -i 0 -k MAC
h -t 1.118296687 -s 12 -d -1 -p ACK -e 38 -c 2 -a 0 -i 0 -k MAC
r -t 1.118601073 -s 13 -d -1 -p ACK -e 38 -c 2 -a 0 -i 0 -k MAC
+ -t 1.118890687 -s 12 -d -1 -p RTS -e 44 -c 2 -a 0 -i 0 -k MAC 
- -t 1.118890687 -s 12 -d -1 -p RTS -e 44 -c 2 -a 0 -i 0 -k MAC
h -t 1.118890687 -s 12 -d -1 -p RTS -e 44 -c 2 -a 0 -i 0 -k MAC
r -t 1.119243417 -s 7 -d -1 -p RTS -e 44 -c 2 -a 0 -i 0 -k MAC
+ -t 1.119253417 -s 7 -d -1 -p CTS -e 38 -c 2 -a 0 -i 0 -k MAC 
- -t 1.119253417 -s 7 -d -1 -p CTS -e 38 -c 2 -a 0 -i 0 -k MAC
h -t 1.119253417 -s 7 -d -1 -p CTS -e 38 -c 2 -a 0 -i 0 -k MAC
r -t 1.119558148 -s 12 -d -1 -p CTS -e 38 -c 2 -a 0 -i 0 -k MAC
+ -t 1.119568148 -s 12 -d 7 -p DSR -e 118 -c 2 -a 0 -i 5 -k MAC 
- -t 1.119568148 -s 12 -d 7 -p DSR -e 118 -c 2 -a 0 -i 5 -k MAC
h -t 1.119568148 -s 12 -d 7 -p DSR -e 118 -c 2 -a 0 -i 5 -k MAC
r -t 1.120512879 -s 7 -d 7 -p DSR -e 60 -c 2 -a 0 -i 5 -k MAC
+ -t 1.120522879 -s 7 -d -1 -p ACK -e 38 -c 2 -a 0 -i 0 -k MAC 
- -t 1.120522879 -s 7 -d -1 -p ACK -e 38 -c 2 -a 0 -i 0 -k MAC
h -t 1.120522879 -s 7 -d -1 -p ACK -e 38 -c 2 -a 0 -i 0 -k MAC
+ -t 1.120537879 -s 7 -d 2 -p DSR -e 60 -c 2 -a 0 -i 5 -k RTR 
- -t 1.120537879 -s 7 -d 2 -p DSR -e 60 -c 2 -a 0 -i 5 -k RTR
h -t 1.120537879 -s 7 -d 2 -p DSR -e 60 -c 2 -a 0 -i 5 -k RTR
r -t 1.120827609 -s 12 -d -1 -p ACK -e 38 -c 2 -a 0 -i 0 -k MAC
+ -t 1.120967464 -s 2 -d -1 -p ARP -e 86 -c 2 -a 0 -i 0 -k MAC 
- -t 1.120967464 -s 2 -d -1 -p ARP -e 86 -c 2 -a 0 -i 0 -k MAC
h -t 1.120967464 -s 2 -d -1 -p ARP -e 86 -c 2 -a 0 -i 0 -k MAC
r -t 1.121655922 -s 6 -d -1 -p ARP -e 28 -c 2 -a 0 -i 0 -k MAC
r -t 1.121655947 -s 1 -d -1 -p ARP -e 28 -c 2 -a 0 -i 0 -k MAC
r -t 1.121655967 -s 5 -d -1 -p ARP -e 28 -c 2 -a 0 -i 0 -k MAC
r -t 1.121655981 -s 3 -d -1 -p ARP -e 28 -c 2 -a 0 -i 0 -k MAC
r -t 1.121656096 -s 4 -d -1 -p ARP -e 28 -c 2 -a 0 -i 0 -k MAC
r -t 1.121656221 -s 0 -d -1 -p ARP -e 28 -c 2 -a 0 -i 0 -k MAC
r -t 1.121656260 -s 7 -d -1 -p ARP -e 28 -c 2 -a 0 -i 0 -k MAC
r -t 1.121656280 -s 8 -d -1 -p ARP -e 28 -c 2 -a 0 -i 0 -k MAC
r -t 1.121656285 -s 10 -d -1 -p ARP -e 28 -c 2 -a 0 -i 0 -k MAC
r -t 1.121656289 -s 9 -d -1 -p ARP -e 28 -c 2 -a 0 -i 0 -k MAC
+ -t 1.122090981 -s 3 -d -1 -p RTS -e 44 -c 2 -a 0 -i 0 -k MAC 
- -t 1.122090981 -s 3 -d -1 -p RTS -e 44 -c 2 -a 0 -i 0 -k MAC
h -t 1.122090981 -s 3 -d -1 -p RTS -e 44 -c 2 -a 0 -i 0 -k MAC
r -t 1.122443498 -s 2 -d -1 -p RTS -e 44 -c 2 -a 0 -i 0 -k MAC
+ -t 1.122453498 -s 2 -d -1 -p CTS -e 38 -c 2 -a 0 -i 0 -k MAC 
- -t 1.122453498 -s 2 -d -1 -p CTS -e 38 -c 2 -a 0 -i 0 -k MAC
h -t 1.122453498 -s 2 -d -1 -p CTS -e 38 -c 2 -a 0 -i 0 -k MAC
r -t 1.122758015 -s 3 -d -1 -p CTS -e 38 -c 2 -a 0 -i 0 -k MAC
+ -t 1.122768015 -s 3 -d -1 -p ARP -e 86 -c 2 -a 0 -i 0 -k MAC 
- -t 1.122768015 -s 3 -d -1 -p ARP -e 86 -c 2 -a 0 -i 0 -k MAC
h -t 1.122768015 -s 3 -d -1 -p ARP -e 86 -c 2 -a 0 -i 0 -k MAC
r -t 1.123456532 -s 2 -d -1 -p ARP -e 28 -c 2 -a 0 -i 0 -k MAC
+ -t 1.123466532 -s 2 -d -1 -p ACK -e 38 -c 2 -a 0 -i 0 -k MAC 
- -t 1.123466532 -s 2 -d -1 -p ACK -e 38 -c 2 -a 0 -i 0 -k MAC
h -t 1.123466532 -s 2 -d -1 -p ACK -e 38 -c 2 -a 0 -i 0 -k MAC
r -t 1.123771048 -s 3 -d -1 -p ACK -e 38 -c 2 -a 0 -i 0 -k MAC
+ -t 1.123931292 -s 7 -d -1 -p ARP -e 86 -c 2 -a 0 -i 0 -k MAC 
- -t 1.123931292 -s 7 -d -1 -p ARP -e 86 -c 2 -a 0 -i 0 -k MAC
h -t 1.123931292 -s 7 -d -1 -p ARP -e 86 -c 2 -a 0 -i 0 -k MAC
r -t 1.124619738 -s 8 -d -1 -p ARP -e 28 -c 2 -a 0 -i 0 -k MAC
r -t 1.124619840 -s 13 -d -1 -p ARP -e 28 -c 2 -a 0 -i 0 -k MAC
r -t 1.124619859 -s 6 -d -1 -p ARP -e 28 -c 2 -a 0 -i 0 -k MAC
r -t 1.124619971 -s 1 -d -1 -p ARP -e 28 -c 2 -a 0 -i 0 -k MAC
r -t 1.124620023 -s 12 -d -1 -p ARP -e 28 -c 2 -a 0 -i 0 -k MAC
r -t 1.124620088 -s 2 -d -1 -p ARP -e 28 -c 2 -a 0 -i 0 -k MAC
+ -t 1.124730023 -s 12 -d -1 -p RTS -e 44 -c 2 -a 0 -i 0 -k MAC 
- -t 1.124730023 -s 12 -d -1 -p RTS -e 44 -c 2 -a 0 -i 0 -k MAC
h -t 1.124730023 -s 12 -d -1 -p RTS -e 44 -c 2 -a 0 -i 0 -k MAC
r -t 1.125082409 -s 13 -d -1 -p RTS -e 44 -c 2 -a 0 -i 0 -k MAC
+ -t 1.125092409 -s 13 -d -1 -p CTS -e 38 -c 2 -a 0 -i 0 -k MAC 
- -t 1.125092409 -s 13 -d -1 -p CTS -e 38 -c 2 -a 0 -i 0 -k MAC
h -t 1.125092409 -s 13 -d -1 -p CTS -e 38 -c 2 -a 0 -i 0 -k MAC
r -t 1.125396796 -s 12 -d -1 -p CTS -e 38 -c 2 -a 0 -i 0 -k MAC
+ -t 1.125406796 -s 12 -d 13 -p DSR -e 126 -c 2 -a 0 -i 6 -k MAC 
- -t 1.125406796 -s 12 -d 13 -p DSR -e 126 -c 2 -a 0 -i 6 -k MAC
h -t 1.125406796 -s 12 -d 13 -p DSR -e 126 -c 2 -a 0 -i 6 -k MAC
r -t 1.126415182 -s 13 -d 13 -p DSR -e 68 -c 2 -a 0 -i 6 -k MAC
+ -t 1.126425182 -s 13 -d -1 -p ACK -e 38 -c 2 -a 0 -i 0 -k MAC 
- -t 1.126425182 -s 13 -d -1 -p ACK -e 38 -c 2 -a 0 -i 0 -k MAC
h -t 1.126425182 -s 13 -d -1 -p ACK -e 38 -c 2 -a 0 -i 0 -k MAC
+ -t 1.126440182 -s 13 -d 8 -p DSR -e 68 -c 2 -a 0 -i 6 -k RTR 
- -t 1.126440182 -s 13 -d 8 -p DSR -e 68 -c 2 -a 0 -i 6 -k RTR
h -t 1.126440182 -s 13 -d 8 -p DSR -e 68 -c 2 -a 0 -i 6 -k RTR
r -t 1.126729569 -s 12 -d -1 -p ACK -e 38 -c 2 -a 0 -i 0 -k MAC
+ -t 1.126919182 -s 13 -d -1 -p RTS -e 44 -c 2 -a 0 -i 0 -k MAC 
- -t 1.126919182 -s 13 -d -1 -p RTS -e 44 -c 2 -a 0 -i 0 -k MAC
h -t 1.126919182 -s 13 -d -1 -p RTS -e 44 -c 2 -a 0 -i 0 -k MAC
r -t 1.127271785 -s 8 -d -1 -p RTS -e 44 -c 2 -a 0 -i 0 -k MAC
+ -t 1.127281785 -s 8 -d -1 -p CTS -e 38 -c 2 -a 0 -i 0 -k MAC 
- -t 1.127281785 -s 8 -d -1 -p CTS -e 38 -c 2 -a 0 -i 0 -k MAC
h -t 1.127281785 -s 8 -d -1 -p CTS -e 38 -c 2 -a 0 -i 0 -k MAC
r -t 1.127586387 -s 13 -d -1 -p CTS -e 38 -c 2 -a 0 -i 0 -k MAC
+ -t 1.127596387 -s 13 -d 8 -p DSR -e 126 -c 2 -a 0 -i 6 -k MAC 
- -t 1.127596387 -s 13 -d 8 -p DSR -e 126 -c 2 -a 0 -i 6 -k MAC
h -t 1.127596387 -s 13 -d 8 -p DSR -e 126 -c 2 -a 0 -i 6 -k MAC
r -t 1.128604990 -s 8 -d 8 -p DSR -e 68 -c 2 -a 0 -i 6 -k MAC
+ -t 1.128614990 -s 8 -d -1 -p ACK -e 38 -c 2 -a 0 -i 0 -k MAC 
- -t 1.128614990 -s 8 -d -1 -p ACK -e 38 -c 2 -a 0 -i 0 -k MAC
h -t 1.128614990 -s 8 -d -1 -p ACK -e 38 -c 2 -a 0 -i 0 -k MAC
+ -t 1.128629990 -s 8 -d 2 -p DSR -e 68 -c 2 -a 0 -i 6 -k RTR 
- -t 1.128629990 -s 8 -d 2 -p DSR -e 68 -c 2 -a 0 -i 6 -k RTR
h -t 1.128629990 -s 8 -d 2 -p DSR -e 68 -c 2 -a 0 -i 6 -k RTR
r -t 1.128919592 -s 13 -d -1 -p ACK -e 38 -c 2 -a 0 -i 0 -k MAC
+ -t 1.129039687 -s 2 -d -1 -p RTS -e 44 -c 2 -a 0 -i 0 -k MAC 
- -t 1.129039687 -s 2 -d -1 -p RTS -e 44 -c 2 -a 0 -i 0 -k MAC
h -t 1.129039687 -s 2 -d -1 -p RTS -e 44 -c 2 -a 0 -i 0 -k MAC
r -t 1.129392204 -s 3 -d -1 -p RTS -e 44 -c 2 -a 0 -i 0 -k MAC
+ -t 1.129402204 -s 3 -d -1 -p CTS -e 38 -c 2 -a 0 -i 0 -k MAC 